% Model:              Dam breaking on a column.mph
% Version:            COMSOL 6.0.0.405
% Date:               Oct 13 2023, 01:23
% Table:              Probe Table 1 - 
% Time (s)                                        Pressure force on the column (N), Boundary Probe 1
0                                                 -2.168404344971009E-18
0.0023893098507135713                             -8.673617379884035E-19
0.0047786197014271425                             -8.673617379884035E-19
0.007167929552140713                              -8.673617379884035E-19
0.009557239402854283                              -8.673617379884035E-19
0.011824559177329807                              -8.673617379884035E-19
0.014076443221654331                              -8.673617379884035E-19
0.01625289065608231                               -8.673617379884035E-19
0.01841813172442651                               -8.673617379884035E-19
0.020571627109701243                              -8.673617379884035E-19
0.02270190132669877                               -8.673617379884035E-19
0.024809577807864018                              -8.673617379884035E-19
0.026911110798287084                              -8.673617379884035E-19
0.02901103304300152                               -8.673617379884035E-19
0.031111398752540625                              -8.673617379884035E-19
0.033212330347335                                 -8.673617379884035E-19
0.03531526025138208                               -8.673617379884035E-19
0.037419490062222005                              -8.673617379884035E-19
0.03952490447022831                               -8.673617379884035E-19
0.04163139751867688                               -8.673617379884035E-19
0.0437380490054162                                -8.673617379884035E-19
0.04582325094474568                               -8.673617379884035E-19
0.04785051893958554                               -8.673617379884035E-19
0.04976936885374416                               -8.673617379884035E-19
0.05161742268194747                               -8.673617379884035E-19
0.05345867557059804                               -8.673617379884035E-19
0.05516927296183532                               -8.673617379884035E-19
0.056841960622337186                              -8.673617379884035E-19
0.058488889379974304                              -8.673617379884035E-19
0.0601184127196648                                -8.673617379884035E-19
0.061737125701691854                              -8.673617379884035E-19
0.06334733481649485                               -8.673617379884035E-19
0.06495257863574284                               -8.673617379884035E-19
0.06655469114911425                               -8.673617379884035E-19
0.06815491013209689                               -8.673617379884035E-19
0.06975407009928844                               -8.673617379884035E-19
0.07135273608191006                               -8.673617379884035E-19
0.07295136756041812                               -8.673617379884035E-19
0.07455008189010079                               -8.673617379884035E-19
0.07614913935128426                               -8.673617379884035E-19
0.07774867324012072                               -8.673617379884035E-19
0.07934878151458605                               -8.673617379884035E-19
0.08094953795916039                               -8.673617379884035E-19
0.08255057890041066                               -8.673617379884035E-19
0.08415279132113528                               -8.673617379884035E-19
0.08575579184480749                               -8.673617379884035E-19
0.08735961172383838                               -8.673617379884035E-19
0.08896427725184668                               -8.673617379884035E-19
0.09056981045026641                               -8.673617379884035E-19
0.09217591624031432                               -8.673617379884035E-19
0.09378323645010268                               -8.673617379884035E-19
0.09539147007990688                               -8.673617379884035E-19
0.09700062702180157                               -8.673617379884035E-19
0.0986107146887753                                -8.673617379884035E-19
0.1002217381633565                                -8.673617379884035E-19
0.10183357221068079                               -8.673617379884035E-19
0.10344647424633094                               -8.673617379884035E-19
0.10506031556627318                               -8.673617379884035E-19
0.10667509417426335                               -8.673617379884035E-19
0.1082908067087217                                -8.673617379884035E-19
0.10990744865447113                               -8.673617379884035E-19
0.11152501447736715                               -8.673617379884035E-19
0.11314263300073658                               -8.673617379884035E-19
0.1147620261347159                                -8.673617379884035E-19
0.11638232176354696                               -8.673617379884035E-19
0.11800351147947526                               -8.673617379884035E-19
0.1196255864248391                                -8.673617379884035E-19
0.12124853739490701                               -8.673617379884035E-19
0.12287168921899508                               -8.673617379884035E-19
0.1244963631064325                                -8.673617379884035E-19
0.1261218838524285                                -8.673617379884035E-19
0.12774824140817168                               -8.673617379884035E-19
0.12937542563363216                               -8.673617379884035E-19
0.131003426345596                                 -8.673617379884035E-19
0.1326317376387069                                -8.673617379884035E-19
0.1342613405286371                                -8.673617379884035E-19
0.13589172940003752                               -8.673617379884035E-19
0.13752289417372177                               -8.673617379884035E-19
0.13915482483288194                               -8.673617379884035E-19
0.14078751143920765                               -8.673617379884035E-19
0.14242058543315167                               -8.673617379884035E-19
0.14405475433400197                               -8.673617379884035E-19
0.1456896499576523                                -8.673617379884035E-19
0.1473252627767304                                -8.673617379884035E-19
0.14896158337983176                               -8.673617379884035E-19
0.15054241007151542                               -8.673617379884035E-19
0.152092749698272                                 6.071532165918825E-18
0.15359679864388487                               5.117434254131581E-17
0.1550786596378197                                9.974659986866641E-17
0.15654492920590066                               1.7954387976359953E-16
0.15800029263803936                               2.8362728832220796E-16
0.15944806386701552                               4.640385298237959E-16
0.16089056803099894                               7.554720737878995E-16
0.16233157671546145                               1.227316859253591E-15
0.16376788200616016                               1.9801868478275253E-15
0.16520239882504875                               3.2291877505308264E-15
0.16663563431078118                               5.258814217423691E-15
0.16806792702332143                               8.568666609587439E-15
0.169499501557364                                 1.3967126066827262E-14
0.17093050630849232                               2.2772582430885535E-14
0.17236134019716007                               3.7104867789405915E-14
0.17379146639826443                               6.045077632910179E-14
0.17522122973371                                  9.844468989994581E-14
0.17665066051455042                               1.6023900956119164E-13
0.1780797806483083                                2.6075582665319175E-13
0.17950860696594734                               4.24166778090207E-13
0.1809371533600059                                6.898188617543433E-13
0.18236560682141828                               1.121712965568289E-12
0.18379362947662412                               1.8238527008107575E-12
0.18522140730008244                               2.9656615704864997E-12
0.18664895151659006                               4.823054282343531E-12
0.18807627344009212                               7.845639936332471E-12
0.18950338450380685                               1.2766623695703583E-11
0.19093029624150368                               2.0782423525156357E-11
0.19235714177891788                               3.384768420405804E-11
0.19378368963116122                               5.515068176448201E-11
0.1952100728956883                                8.990524557467294E-11
0.19663630302725946                               1.4663191060665381E-10
0.19806239134881978                               2.3926214048203276E-10
0.199488349023706                                 3.905749534557912E-10
0.20091418703364877                               6.378161115580538E-10
0.20233998518402066                               1.0419056823904316E-9
0.20376561602131923                               1.7023562620330224E-9
0.20519115895305673                               2.7818923059239054E-9
0.20661662416449178                               4.546358441624709E-9
0.20804202164495217                               7.429955948233535E-9
0.20946736119395268                               1.2141592813617874E-8
0.2108926524281399                                1.9838246752799937E-8
0.21231792845292585                               3.240778161019836E-8
0.21374315121214144                               5.2927838364684454E-8
0.21516835348112426                               8.641555440582621E-8
0.21659354421373214                               1.4104457560139977E-7
0.21801873221245                                  2.3012537169863484E-7
0.2194439261328519                                3.753246733744983E-7
0.22086913448755507                               6.118945330554557E-7
0.22229435114853469                               9.971561466320597E-7
0.22371961335109045                               1.62429182944384E-6
0.22514491469345094                               2.6446541176962032E-6
0.2265702631392892                                4.303966752472986E-6
0.22799566651867484                               7.000856225634726E-6
0.2294211325285435                                1.1381403487718909E-5
0.23084666873279205                               1.849164558569323E-5
0.23227223594925311                               3.0022495360589128E-5
0.23369793469905867                               4.870518649394357E-5
0.2351237255363651                                7.893955016242005E-5
0.23654961549251483                               1.2779925795848796E-4
0.2379756114650653                                2.0662456819476932E-4
0.23940172021733547                               3.3353607505149947E-4
0.2408279483780421                                5.373783477329859E-4
0.24225422892647883                               8.638470879310518E-4
0.24368071524381502                               0.0013850788091264413
0.2451073400458613                                0.0022142240430293794
0.2465341094209905                                0.003528039869622594
0.2479610293221643                                0.005601575400932908
0.24938810556702237                               0.008862106129697466
0.2508153438381973                                0.013974183644699652
0.2522426536075791                                0.02197529096115751
0.25367023242944636                               0.03449874376773199
0.2550979895191444                                0.0541249193957163
0.2565259300235767                                0.08493476570395601
0.2579540589573055                                0.13331921616744358
0.2593823812035932                                0.20906998509397
0.2608109015152619                                0.3266820810336265
0.2622395091892728                                0.5066399297613253
0.2636684393567586                                0.7764202755254122
0.2650975810760031                                1.170517810259873
0.2665269385895757                                1.729328185469379
0.26795651601608356                               2.496431077456162
0.26938631735153395                               3.514412560645959
0.27081634647086295                               4.819661351292037
0.27224647475002556                               6.436754665571879
0.27367697056392537                               8.37431776282093
0.2751077050766347                                10.620904628401247
0.27653868169593226                               13.144496537560826
0.27796990371720065                               15.893655335190042
0.27940137432526807                               18.80096985178006
0.28083309659626426                               21.788166419152073
0.28226492518722884                               24.771739997409817
0.28369715956109487                               27.670234164978893
0.2851296541937067                                30.40782896935397
0.2865624117458278                                32.920051934810886
0.28799543477938117                               35.156445607045264
0.2894287257592404                                37.082143285127096
0.2908622870550982                                38.678104168426415
0.29229595688037546                               39.9400334305756
0.2937300655145502                                40.87717964611683
0.2951644510215032                                41.509099438356586
0.29659911540931094                               41.863596634757954
0.2980340606003146                                41.97387207040532
0.29946928843293047                               41.87505928187842
0.3009048006637982                                41.601832029095895
0.3023404185900111                                41.19242488836678
0.30377650452305976                               40.678620198410385
0.30521287965790006                               40.09168108016916
0.3066495454658695                                39.45917479307147
0.3080865033612359                                38.80342095967267
0.30952375468766957                               38.1421738864631
0.3109613007167411                                37.48920570026951
0.3123989447425159                                36.85474619592669
0.3138370836716358                                36.24510407993203
0.3152755206794424                                35.666326503479134
0.31671425678133913                               35.12184532760146
0.3181532929348566                                34.6132237779692
0.3195926300329831                                34.14069706720784
0.32103226890392966                               33.70355054709096
0.32247199337254606                               33.30010644059562
0.3239122379590182                                32.92868463336165
0.3253527864132419                                32.5874425851805
0.32679363932955596                               32.27421432121472
0.3282347972437049                                31.98694773975633
0.3296762606504436                                31.723536608106038
0.3311180299971993                                31.48188376423075
0.332559868135356                                 31.259983451543388
0.3340022504618417                                31.055811438156173
0.3354449397841412                                30.867567015952854
0.33688793636118514                               30.69353984737988
0.33833124040668416                               30.532158353410185
0.3397748520898268                                30.38199515101606
0.3412187715359852                                30.24176813702127
0.3426627389974846                                30.110356147863158
0.34410727411943587                               29.986473462961868
0.34555211710720457                               29.869310725076687
0.34699726791202323                               29.75820564618188
0.348442726458506                                 29.652526061176097
0.349888492635082                                 29.551804788139833
0.35133456630397814                               29.455615278210356
0.35278066368231664                               29.363590294005547
0.3542273517412746                                29.275348986146188
0.35567434669762266                               29.190601965711988
0.3571216482934719                                29.109074811617454
0.35856925624227953                               29.030522998195934
0.36001717022954827                               28.95472866084821
0.3614653862958473                                28.881495030252903
0.3629139113079931                                28.810461368656135
0.36436274124061474                               28.741491553882387
0.365811875666947                                 28.674568657571374
0.36726131414986213                               28.60962745032156
0.36871105623494277                               28.546490711972005
0.3701611014403893                                28.4851626694311
0.3716114157123559                                28.42561974490416
0.3730620656769329                                28.367816299835717
0.37451301726488756                               28.311701021973633
0.37596426995598                                  28.257216168836457
0.37741582322166006                               28.20430187948597
0.3788676765270784                                28.1528980084346
0.38031982933336034                               28.102945323169724
0.3817722153452515                                28.054384247386576
0.3832249655204518                                28.00698352857159
0.3846780135687879                                27.96065576836908
0.3861313589507457                                27.915456875321304
0.38758500115114014                               27.871450081834272
0.38903893968113407                               27.82865843645566
0.39049317407875056                               27.787080392697295
0.39194760382195987                               27.746701685814987
0.3934024286793834                                27.70748978997056
0.39485754823005764                               27.669413999580836
0.3963129621749761                                27.632436471790324
0.39776867027404234                               27.596516613769737
0.3992246723547337                                27.56160451100279
0.40068096832198763                               27.527454956673367
0.4021374208103972                                27.494142579562904
0.40359430455658596                               27.461702241144067
0.40505148245494177                               27.430099648854288
0.40650895483472693                               27.399292791483656
0.407966722163714                                 27.369315669617073
0.4094247850724441                                27.3401757297765
0.41088314436678053                               27.311864424532605
0.41234162092946597                               27.284367155966553
0.4137995685508306                                27.25767198204639
0.4152569154775439                                27.23175267964917
0.4167137488921838                                27.206574183174265
0.4181701548269983                                27.18197009299634
0.41962621815120266                               27.157972643596448
0.4210820219044908                                27.134535046596987
0.4225377742467582                                27.11170881539275
0.42399330003812463                               27.089529317285766
0.4254488026773847                                27.068004072685323
0.426904355939801                                 27.047129450818197
0.4283600308490452                                27.026893825797554
0.4298158955643889                                27.007280742540686
0.4312720152928322                                26.988270905963283
0.4327281721976084                                26.96984695239922
0.4341849853915892                                26.95191080370131
0.43564223112337824                               26.93439390336702
0.43709996269954765                               26.917354964389478
0.4385582302817956                                26.900821625139013
0.4400170809794995                                26.884777975656174
0.4414765516255173                                26.86918060719629
0.4429366982634878                                26.854061397321136
0.44439755201967884                               26.839432196079066
0.4458591485678206                                26.825292075764477
0.44732152088288846                               26.811632441028664
0.4487846993337606                                26.79844008430453
0.45024871177817927                               26.785698163272663
0.4517132993109963                                26.773323344074424
0.45317837808124206                               26.761297854874634
0.45464392253026636                               26.74964229373209
0.45610997090176686                               26.738320049403935
0.4575765596637114                                26.7273682797303
0.4590437234192137                                26.716802658299052
0.4605114949357376                                26.706625285825336
0.4619796813126013                                26.696831514285474
0.4634487592220832                                26.687407263140894
0.4649185322200232                                26.67833997385929
0.4663890258054533                                26.669613859109354
0.46786026371541256                               26.661207321389316
0.46933226795092065                               26.652998503855702
0.47080505891495206                               26.64503691247754
0.4722782137119473                                26.637349184558534
0.47375263239424287                               26.629916587529465
0.47522788922681974                               26.622717554945034
0.47670399836221017                               26.61577377789837
0.4781809724988336                                26.609091580620362
0.47965882296052986                               26.602667786190793
0.4811375597486321                                26.59649342046504
0.4826165024526315                                26.59055865645961
0.4840970364353875                                26.584843250136032
0.48557847931817555                               26.57933291495534
0.4870608363285121                                26.573959944500267
0.48854411166053113                               26.568699517565307
0.4900283084964493                                26.563543463600634
0.4915134114392121                                26.55852069848129
0.4929994571383311                                26.553641073066718
0.49448642850351787                               26.548902861569637
0.4959743253087197                                26.544296949913488
0.49746314658809243                               26.53980952040668
0.4989528906734722                                26.53542364879427
0.5004435552347305                                26.531113623014413
0.5019348641864796                                26.526840722643254
0.5034273600958388                                26.522538339065107
0.5049207659491552                                26.518219056853066
0.5064150771581868                                26.51385581857205
0.507910288713175                                 26.509468388340498
0.5094063951717168                                26.505055283868916
0.5109033907057206                                26.500250223744537
0.5124007367178883                                26.495006236033458
0.5138994912868411                                26.48956455990924
0.5153991153941364                                26.48406130186181
0.5168996020429042                                26.478562882363573
0.5184009441002935                                26.473070899383174
0.519903134255976                                 26.467592552203282
0.5214061649679983                                26.46211687573132
0.5229092495801866                                26.456618615569674
0.5244139374924984                                26.451052123500556
0.5259194420878793                                26.445371823669475
0.5274257550478163                                26.439523128419246
0.5289328679065156                                26.433446842568355
0.530440772069823                                 26.427080272717664
0.531949230192885                                 26.420359084628707
0.5334586906372217                                26.41321378586192
0.5349689159982224                                26.405576299148393
0.5364798973234983                                26.397376348167565
0.5379916256027916                                26.388542792475874
0.5395040917788465                                26.379003946368876
0.5410172867577935                                26.368687886580975
0.5425307182328141                                26.35752646292417
0.544045343214099                                 26.345440794875262
0.5455606695976813                                26.33234424946424
0.5470766882428715                                26.318168657962687
0.5485933900165063                                26.302858648182685
0.5501107658050881                                26.2863548517985
0.5516287579730839                                26.268597030281384
0.5531474545893805                                26.249523261906997
0.5546667981330452                                26.229074275457005
0.5561867796777261                                26.20719182454866
0.5577073903599944                                26.183819642803098
0.5592286213877464                                26.15890372513726
0.5607504640490738                                26.132392522264844
0.5622726128368905                                26.10424272516102
0.563795652881005                                 26.074397072843496
0.5653192789975124                                26.04281732520469
0.5668434828877318                                26.009462660794053
0.5683682563802605                                25.974294795126035
0.5698935914401635                                25.93726303547357
0.571419480182282                                 25.898335406099694
0.572945407232812                                 25.85750707498373
0.5744723801450925                                25.81473007581178
0.5759998840838699                                25.769996785207432
0.5775279118784918                                25.723287354155378
0.5790564565676966                                25.674583606521697
0.5805855114111549                                25.62386918615611
0.582114877299511                                 25.57111289305411
0.583644933117273                                 25.516288781082338
0.5851754803302935                                25.45941348037478
0.5867065132191682                                25.400491739037612
0.5882380263717544                                25.339526418540878
0.5897700146957415                                25.27652041828418
0.5913024734296088                                25.21147777744504
0.5928350023349311                                25.1444219088583
0.5943683888747132                                25.075326211586738
0.5959022336628637                                25.004218227752574
0.5974365334045477                                24.931110967491303
0.5989712852111153                                24.856009616546803
0.6005064866165196                                24.778931688248736
0.6020419879876904                                24.699914576092876
0.603578082913704                                 24.61897191136576
0.6051146227280866                                24.53614063106635
0.606651606811229                                 24.451451555498323
0.6081890350395948                                24.364937278098502
0.6097269077970209                                24.276632343655304
0.6112652259863401                                24.18657330683159
0.6128036234160139                                24.094820843397322
0.6143428372037644                                24.001371589681284
0.615882502359342                                 23.90628960460658
0.6174226219731871                                23.809618968923772
0.6189631997077893                                23.711397044874715
0.6205042398003461                                23.6116457523751
0.6220455940504763                                23.510445407463287
0.6235875739049269                                23.407838144694253
0.6251300324000282                                23.30389171267521
0.6266729761837411                                23.198661554716725
0.6282164125200397                                23.092201902503913
0.6297603492872296                                22.984566363313522
0.6313047949775129                                22.87580822082252
0.6328493205467167                                22.76601186514097
0.6343948118635776                                22.65516183298235
0.6359408412517539                                22.543322278384675
0.6374874196559992                                22.430562089213044